12
	Energy:       4.6529881
C         -3.41050        6.02773        0.35658
C         -2.43058        5.01081       -0.14540
N         -1.14323        5.27654        0.48883
H         -0.39886        4.71865        0.01303
O         -4.55864        6.05210       -0.05833
C         -2.92419        3.58790        0.18385
H         -2.33659        5.13692       -1.24728
C         -2.03029        2.51669       -0.37406
H         -2.99432        3.46705        1.28730
H         -3.93554        3.43881       -0.25388
O         -2.30289        1.34196       -0.18726
H         -1.14648        2.76439       -0.95235
