10
	Energy:      10.7540561
C         -3.10310        3.42698        0.00000
C         -2.43307        4.65371        0.00000
C         -1.03275        4.68479        0.00000
C         -0.30776        3.48972        0.00000
C         -2.37855        2.23175        0.00000
C         -0.97747        2.26263        0.00000
H         -3.00197        5.57319       -0.00000
H         -0.50939        5.63099        0.00000
H         -2.90378        1.28573        0.00000
H         -0.40739        1.34276        0.00000
