17
	Energy:       7.7392812
C         -3.64050        4.84357       -0.97337
C         -2.22184        4.56123       -0.57862
N         -2.01035        4.96961        0.80649
H         -0.99417        4.86511        1.03218
O         -4.08619        5.97899       -0.92557
C         -1.87860        3.07101       -0.77138
H         -1.55758        5.16289       -1.23790
C         -2.72742        2.12943        0.10647
H         -2.02469        2.80656       -1.84239
H         -0.80408        2.92277       -0.52425
C         -2.37862        0.67156       -0.08198
H         -2.57399        2.38635        1.17654
H         -3.80252        2.26086       -0.14075
N         -3.04177       -0.27292        0.62378
H         -3.78297       -0.00768        1.28897
H         -2.81480       -1.27151        0.50569
O         -1.50300        0.33287       -0.86579
