20
	Energy:      20.6665231
C         -4.45626        3.28102        0.58872
O         -4.57780        4.31881        1.22141
C         -3.43020        3.12855       -0.50852
N         -2.67860        4.36974       -0.67900
H         -3.32993        5.10867       -1.03256
C         -2.44357        1.99461       -0.17461
H         -3.94234        2.89671       -1.46786
C         -3.01108        0.58671       -0.09026
H         -1.95354        2.23839        0.79454
H         -1.65669        1.97967       -0.96076
C         -4.36282        0.26528       -0.34398
C         -4.80633       -1.05783       -0.24932
C         -3.91508       -2.07500        0.09597
C         -2.57592       -1.77242        0.34582
C         -2.12654       -0.45215        0.25216
H         -1.08310       -0.23750        0.44926
H         -5.08567        1.01809       -0.62009
H         -5.84409       -1.29484       -0.44591
H         -4.26187       -3.09776        0.16803
H         -1.88436       -2.56137        0.61197
