14
	Energy:      25.2563254
C         -3.38912        4.96616        0.24777
C         -2.75438        3.77399       -0.39561
N         -1.29294        3.90014       -0.45436
O         -3.25369        6.07798       -0.23706
C         -3.04038        2.49063        0.37185
H         -3.12891        3.66895       -1.43929
C         -1.94908        1.61602       -0.18403
H         -4.07133        2.09823        0.23966
H         -2.84622        2.64427        1.45969
C         -0.77350        2.57557       -0.09407
H         -2.16919        1.40469       -1.25609
H         -1.79517        0.65442        0.34998
H          0.07723        2.26464       -0.73597
H         -0.42397        2.63002        0.96118
