14
	Energy:      11.0165411
C         -4.06299        4.89029       -0.42546
C         -2.58156        4.71916       -0.58626
N         -1.90769        5.25667        0.59264
H         -0.88593        5.34358        0.38915
O         -4.54970        5.99974       -0.27556
C         -2.22353        3.23020       -0.81495
H         -2.27266        5.30235       -1.48248
C         -2.62232        2.31492        0.35717
H         -2.08752        2.60633        1.28596
H         -2.36294        1.26271        0.11415
H         -3.71555        2.36728        0.54326
O         -0.85544        3.08928       -1.11246
H         -2.78526        2.87879       -1.70852
H         -0.34057        3.19037       -0.27004
